Program Version,EnergyPlus, Version 9.0.1-bb7ca4f0da, YMD=2022.08.02 10:35
1,5,Environment Title[],Latitude[deg],Longitude[deg],Time Zone[],Elevation[m]
2,8,Day of Simulation[],Month[],Day of Month[],DST Indicator[1=yes 0=no],Hour[],StartMinute[],EndMinute[],DayType
3,5,Cumulative Day of Simulation[],Month[],Day of Month[],DST Indicator[1=yes 0=no],DayType  ! When Daily Meters Requested
4,2,Cumulative Days of Simulation[],Month[]  ! When Monthly Meters Requested
5,1,Cumulative Days of Simulation[] ! When Run Period Meters Requested
6,1,Calendar Year of Simulation[] ! When Annual Meters Requested
11,1,Electricity:Facility [J] !Hourly
End of Data Dictionary
1,TYPICAL SUMMER WEEK,  46.27,-119.12,  -8.00, 136.00
2,1, 8, 1, 1, 1, 0.00,60.00,Monday
11,195501848.03313715
2,1, 8, 1, 1, 2, 0.00,60.00,Monday
11,196591901.30051158
2,1, 8, 1, 1, 3, 0.00,60.00,Monday
11,196595486.56321184
2,1, 8, 1, 1, 4, 0.00,60.00,Monday
11,196595486.5641457
2,1, 8, 1, 1, 5, 0.00,60.00,Monday
11,196595486.5641457
2,1, 8, 1, 1, 6, 0.00,60.00,Monday
11,209064673.35490618
2,1, 8, 1, 1, 7, 0.00,60.00,Monday
11,210207072.6967548
2,1, 8, 1, 1, 8, 0.00,60.00,Monday
11,225109121.28601367
2,1, 8, 1, 1, 9, 0.00,60.00,Monday
11,256073455.00753913
2,1, 8, 1, 1,10, 0.00,60.00,Monday
11,280932458.43265327
2,1, 8, 1, 1,11, 0.00,60.00,Monday
11,292602748.9892118
2,1, 8, 1, 1,12, 0.00,60.00,Monday
11,301528317.63024178
2,1, 8, 1, 1,13, 0.00,60.00,Monday
11,307755275.7042965
2,1, 8, 1, 1,14, 0.00,60.00,Monday
11,312259285.8433816
2,1, 8, 1, 1,15, 0.00,60.00,Monday
11,315634302.9865202
2,1, 8, 1, 1,16, 0.00,60.00,Monday
11,314343121.05693349
2,1, 8, 1, 1,17, 0.00,60.00,Monday
11,312570638.8726589
2,1, 8, 1, 1,18, 0.00,60.00,Monday
11,206137985.01505257
2,1, 8, 1, 1,19, 0.00,60.00,Monday
11,197949503.54279284
2,1, 8, 1, 1,20, 0.00,60.00,Monday
11,197592408.45755459
2,1, 8, 1, 1,21, 0.00,60.00,Monday
11,197729578.62426374
2,1, 8, 1, 1,22, 0.00,60.00,Monday
11,197579144.8820596
2,1, 8, 1, 1,23, 0.00,60.00,Monday
11,197402501.8748026
2,1, 8, 1, 1,24, 0.00,60.00,Monday
11,197250887.29759593
2,2, 8, 2, 1, 1, 0.00,60.00,Tuesday
11,197199242.0380129
2,2, 8, 2, 1, 2, 0.00,60.00,Tuesday
11,197143048.57279329
2,2, 8, 2, 1, 3, 0.00,60.00,Tuesday
11,197072452.927939
2,2, 8, 2, 1, 4, 0.00,60.00,Tuesday
11,197076271.1436908
2,2, 8, 2, 1, 5, 0.00,60.00,Tuesday
11,197026044.01753927
2,2, 8, 2, 1, 6, 0.00,60.00,Tuesday
11,218617451.98697234
2,2, 8, 2, 1, 7, 0.00,60.00,Tuesday
11,234764021.82981784
2,2, 8, 2, 1, 8, 0.00,60.00,Tuesday
11,243929523.3137934
2,2, 8, 2, 1, 9, 0.00,60.00,Tuesday
11,262098593.37198756
2,2, 8, 2, 1,10, 0.00,60.00,Tuesday
11,276150322.543404
2,2, 8, 2, 1,11, 0.00,60.00,Tuesday
11,288566489.3333965
2,2, 8, 2, 1,12, 0.00,60.00,Tuesday
11,298665326.8273011
2,2, 8, 2, 1,13, 0.00,60.00,Tuesday
11,302176661.7168595
2,2, 8, 2, 1,14, 0.00,60.00,Tuesday
11,305870185.22357389
2,2, 8, 2, 1,15, 0.00,60.00,Tuesday
11,307405044.802587
2,2, 8, 2, 1,16, 0.00,60.00,Tuesday
11,304642522.1820644
2,2, 8, 2, 1,17, 0.00,60.00,Tuesday
11,302485082.236701
2,2, 8, 2, 1,18, 0.00,60.00,Tuesday
11,204321706.99085538
2,2, 8, 2, 1,19, 0.00,60.00,Tuesday
11,197342220.26306833
2,2, 8, 2, 1,20, 0.00,60.00,Tuesday
11,197090306.09874214
2,2, 8, 2, 1,21, 0.00,60.00,Tuesday
11,196976982.70482204
2,2, 8, 2, 1,22, 0.00,60.00,Tuesday
11,197008122.454414
2,2, 8, 2, 1,23, 0.00,60.00,Tuesday
11,197044974.98393143
2,2, 8, 2, 1,24, 0.00,60.00,Tuesday
11,196955422.63301245
2,3, 8, 3, 1, 1, 0.00,60.00,Wednesday
11,196883272.1031776
2,3, 8, 3, 1, 2, 0.00,60.00,Wednesday
11,196861435.087894
2,3, 8, 3, 1, 3, 0.00,60.00,Wednesday
11,196861435.087894
2,3, 8, 3, 1, 4, 0.00,60.00,Wednesday
11,196861435.087894
2,3, 8, 3, 1, 5, 0.00,60.00,Wednesday
11,196861435.087894
2,3, 8, 3, 1, 6, 0.00,60.00,Wednesday
11,209189789.46785615
2,3, 8, 3, 1, 7, 0.00,60.00,Wednesday
11,210827674.12337927
2,3, 8, 3, 1, 8, 0.00,60.00,Wednesday
11,224902233.76190389
2,3, 8, 3, 1, 9, 0.00,60.00,Wednesday
11,243301539.55246166
2,3, 8, 3, 1,10, 0.00,60.00,Wednesday
11,265406491.1755352
2,3, 8, 3, 1,11, 0.00,60.00,Wednesday
11,280248151.1391499
2,3, 8, 3, 1,12, 0.00,60.00,Wednesday
11,294286213.683121
2,3, 8, 3, 1,13, 0.00,60.00,Wednesday
11,301479105.8124458
2,3, 8, 3, 1,14, 0.00,60.00,Wednesday
11,306664765.02241
2,3, 8, 3, 1,15, 0.00,60.00,Wednesday
11,307933867.7056483
2,3, 8, 3, 1,16, 0.00,60.00,Wednesday
11,304578577.31015297
2,3, 8, 3, 1,17, 0.00,60.00,Wednesday
11,302013034.28731706
2,3, 8, 3, 1,18, 0.00,60.00,Wednesday
11,204210542.32663656
2,3, 8, 3, 1,19, 0.00,60.00,Wednesday
11,197600370.55951304
2,3, 8, 3, 1,20, 0.00,60.00,Wednesday
11,197348380.7146452
2,3, 8, 3, 1,21, 0.00,60.00,Wednesday
11,197205430.444178
2,3, 8, 3, 1,22, 0.00,60.00,Wednesday
11,197237081.9322253
2,3, 8, 3, 1,23, 0.00,60.00,Wednesday
11,197201185.5751909
2,3, 8, 3, 1,24, 0.00,60.00,Wednesday
11,197179612.6962285
2,4, 8, 4, 1, 1, 0.00,60.00,Thursday
11,197205430.444178
2,4, 8, 4, 1, 2, 0.00,60.00,Thursday
11,197145688.73091767
2,4, 8, 4, 1, 3, 0.00,60.00,Thursday
11,197070021.0231478
2,4, 8, 4, 1, 4, 0.00,60.00,Thursday
11,197022282.25298704
2,4, 8, 4, 1, 5, 0.00,60.00,Thursday
11,197026139.948784
2,4, 8, 4, 1, 6, 0.00,60.00,Thursday
11,233731149.7538358
2,4, 8, 4, 1, 7, 0.00,60.00,Thursday
11,232643438.68123136
2,4, 8, 4, 1, 8, 0.00,60.00,Thursday
11,235152801.75330476
2,4, 8, 4, 1, 9, 0.00,60.00,Thursday
11,241532084.13937745
2,4, 8, 4, 1,10, 0.00,60.00,Thursday
11,263860528.73923955
2,4, 8, 4, 1,11, 0.00,60.00,Thursday
11,278098399.3113944
2,4, 8, 4, 1,12, 0.00,60.00,Thursday
11,280796986.8971522
2,4, 8, 4, 1,13, 0.00,60.00,Thursday
11,282446755.1383223
2,4, 8, 4, 1,14, 0.00,60.00,Thursday
11,282870028.6686079
2,4, 8, 4, 1,15, 0.00,60.00,Thursday
11,281890453.1515494
2,4, 8, 4, 1,16, 0.00,60.00,Thursday
11,282504369.8815822
2,4, 8, 4, 1,17, 0.00,60.00,Thursday
11,286010613.0386581
2,4, 8, 4, 1,18, 0.00,60.00,Thursday
11,201038375.03422607
2,4, 8, 4, 1,19, 0.00,60.00,Thursday
11,197064727.33737783
2,4, 8, 4, 1,20, 0.00,60.00,Thursday
11,196982025.30845184
2,4, 8, 4, 1,21, 0.00,60.00,Thursday
11,196868827.5966611
2,4, 8, 4, 1,22, 0.00,60.00,Thursday
11,196770816.1563803
2,4, 8, 4, 1,23, 0.00,60.00,Thursday
11,196723994.54284684
2,4, 8, 4, 1,24, 0.00,60.00,Thursday
11,196707535.35365058
2,5, 8, 5, 1, 1, 0.00,60.00,Friday
11,196688734.4604071
